file 39837794 1357672245                                        
version 2
run TCP-0-20130108-20:10:29-10000
attr configname TCP
attr datetime 20130108-20:10:29
attr experiment TCP
attr inifile omnetpp.ini
attr iterationvars ""
attr iterationvars2 $repetition=0
attr measurement ""
attr network Omrezje
attr processid 10000
attr repetition 0
attr replication #0
attr resultdir results
attr runnumber 0
attr seedset 0

vector 7  Omrezje.streznik.wlan[0].mgmt  dataQueueLen:vector  ETV
attr interpolationmode  sample-hold
attr title  "data queue length, vector"
vector 22  Omrezje.klient1.wlan[0].mgmt  dataQueueLen:vector  ETV
attr interpolationmode  sample-hold
attr title  "data queue length, vector"
vector 37  Omrezje.klient2.wlan[0].mgmt  dataQueueLen:vector  ETV
attr interpolationmode  sample-hold
attr title  "data queue length, vector"
vector 52  Omrezje.klient3.wlan[0].mgmt  dataQueueLen:vector  ETV
attr interpolationmode  sample-hold
attr title  "data queue length, vector"
vector 67  Omrezje.klient4.wlan[0].mgmt  dataQueueLen:vector  ETV
attr interpolationmode  sample-hold
attr title  "data queue length, vector"
vector 73  Omrezje.ap.wlan[0].mgmt  dataQueueLen:vector  ETV
attr interpolationmode  sample-hold
attr title  "data queue length, vector"
vector 80  Omrezje.streznik.wlan[0].mac  RadioState  ETV
attr enum  "IDLE=0, RECV=1, SLEEP=3, TRANSMIT=2"
attr enumname  RadioState
vector 79  Omrezje.streznik.wlan[0].mac  State  ETV
attr enum  "BACKOFF=3, DEFER=1, IDLE=0, RECEIVE=8, WAITACK=4, WAITAIFS=2, WAITCTS=6, WAITMULTICAST=5, WAITSIFS=7"
attr enumname  Ieee80211Mac
vector 86  Omrezje.klient1.wlan[0].mac  RadioState  ETV
attr enum  "IDLE=0, RECV=1, SLEEP=3, TRANSMIT=2"
attr enumname  RadioState
vector 85  Omrezje.klient1.wlan[0].mac  State  ETV
attr enum  "BACKOFF=3, DEFER=1, IDLE=0, RECEIVE=8, WAITACK=4, WAITAIFS=2, WAITCTS=6, WAITMULTICAST=5, WAITSIFS=7"
attr enumname  Ieee80211Mac
vector 92  Omrezje.klient2.wlan[0].mac  RadioState  ETV
attr enum  "IDLE=0, RECV=1, SLEEP=3, TRANSMIT=2"
attr enumname  RadioState
vector 91  Omrezje.klient2.wlan[0].mac  State  ETV
attr enum  "BACKOFF=3, DEFER=1, IDLE=0, RECEIVE=8, WAITACK=4, WAITAIFS=2, WAITCTS=6, WAITMULTICAST=5, WAITSIFS=7"
attr enumname  Ieee80211Mac
vector 98  Omrezje.klient3.wlan[0].mac  RadioState  ETV
attr enum  "IDLE=0, RECV=1, SLEEP=3, TRANSMIT=2"
attr enumname  RadioState
vector 97  Omrezje.klient3.wlan[0].mac  State  ETV
attr enum  "BACKOFF=3, DEFER=1, IDLE=0, RECEIVE=8, WAITACK=4, WAITAIFS=2, WAITCTS=6, WAITMULTICAST=5, WAITSIFS=7"
attr enumname  Ieee80211Mac
vector 104  Omrezje.klient4.wlan[0].mac  RadioState  ETV
attr enum  "IDLE=0, RECV=1, SLEEP=3, TRANSMIT=2"
attr enumname  RadioState
vector 103  Omrezje.klient4.wlan[0].mac  State  ETV
attr enum  "BACKOFF=3, DEFER=1, IDLE=0, RECEIVE=8, WAITACK=4, WAITAIFS=2, WAITCTS=6, WAITMULTICAST=5, WAITSIFS=7"
attr enumname  Ieee80211Mac
vector 110  Omrezje.ap.wlan[0].mac  RadioState  ETV
attr enum  "IDLE=0, RECV=1, SLEEP=3, TRANSMIT=2"
attr enumname  RadioState
vector 109  Omrezje.ap.wlan[0].mac  State  ETV
attr enum  "BACKOFF=3, DEFER=1, IDLE=0, RECEIVE=8, WAITACK=4, WAITAIFS=2, WAITCTS=6, WAITMULTICAST=5, WAITSIFS=7"
attr enumname  Ieee80211Mac
vector 9  Omrezje.streznik.wlan[0].radio  bitrate:vector  ETV
attr interpolationmode  sample-hold
attr title  "tx bitrate, vector"
attr unit  bps
vector 11  Omrezje.streznik.wlan[0].radio  radioState:vector  ETV
attr interpolationmode  sample-hold
attr title  "radio state (enum), vector"
vector 10  Omrezje.streznik.wlan[0].radio  channelNo:vector  ETV
attr interpolationmode  sample-hold
attr title  "channel no, vector"
vector 24  Omrezje.klient1.wlan[0].radio  bitrate:vector  ETV
attr interpolationmode  sample-hold
attr title  "tx bitrate, vector"
attr unit  bps
vector 26  Omrezje.klient1.wlan[0].radio  radioState:vector  ETV
attr interpolationmode  sample-hold
attr title  "radio state (enum), vector"
vector 25  Omrezje.klient1.wlan[0].radio  channelNo:vector  ETV
attr interpolationmode  sample-hold
attr title  "channel no, vector"
vector 39  Omrezje.klient2.wlan[0].radio  bitrate:vector  ETV
attr interpolationmode  sample-hold
attr title  "tx bitrate, vector"
attr unit  bps
vector 41  Omrezje.klient2.wlan[0].radio  radioState:vector  ETV
attr interpolationmode  sample-hold
attr title  "radio state (enum), vector"
vector 40  Omrezje.klient2.wlan[0].radio  channelNo:vector  ETV
attr interpolationmode  sample-hold
attr title  "channel no, vector"
vector 54  Omrezje.klient3.wlan[0].radio  bitrate:vector  ETV
attr interpolationmode  sample-hold
attr title  "tx bitrate, vector"
attr unit  bps
vector 56  Omrezje.klient3.wlan[0].radio  radioState:vector  ETV
attr interpolationmode  sample-hold
attr title  "radio state (enum), vector"
vector 55  Omrezje.klient3.wlan[0].radio  channelNo:vector  ETV
attr interpolationmode  sample-hold
attr title  "channel no, vector"
vector 69  Omrezje.klient4.wlan[0].radio  bitrate:vector  ETV
attr interpolationmode  sample-hold
attr title  "tx bitrate, vector"
attr unit  bps
vector 71  Omrezje.klient4.wlan[0].radio  radioState:vector  ETV
attr interpolationmode  sample-hold
attr title  "radio state (enum), vector"
vector 70  Omrezje.klient4.wlan[0].radio  channelNo:vector  ETV
attr interpolationmode  sample-hold
attr title  "channel no, vector"
vector 75  Omrezje.ap.wlan[0].radio  bitrate:vector  ETV
attr interpolationmode  sample-hold
attr title  "tx bitrate, vector"
attr unit  bps
vector 77  Omrezje.ap.wlan[0].radio  radioState:vector  ETV
attr interpolationmode  sample-hold
attr title  "radio state (enum), vector"
vector 76  Omrezje.ap.wlan[0].radio  channelNo:vector  ETV
attr interpolationmode  sample-hold
attr title  "channel no, vector"
vector 16  Omrezje.klient1.tcpApp[0]  numActiveSessions:vector  ETV
attr interpolationmode  sample-hold
attr source  sum(connect)
attr title  "number of active sessions, vector"
vector 31  Omrezje.klient2.tcpApp[0]  numActiveSessions:vector  ETV
attr interpolationmode  sample-hold
attr source  sum(connect)
attr title  "number of active sessions, vector"
vector 46  Omrezje.klient3.tcpApp[0]  numActiveSessions:vector  ETV
attr interpolationmode  sample-hold
attr source  sum(connect)
attr title  "number of active sessions, vector"
vector 61  Omrezje.klient4.tcpApp[0]  numActiveSessions:vector  ETV
attr interpolationmode  sample-hold
attr source  sum(connect)
attr title  "number of active sessions, vector"
vector 154  Omrezje.klient1.tcp  tcpRcvQueueBytes  ETV
vector 141  Omrezje.klient1.tcp  "advertised window"  ETV
vector 140  Omrezje.klient1.tcp  "receive window"  ETV
vector 143  Omrezje.klient1.tcp  "sent ack"  ETV
vector 178  Omrezje.klient2.tcp  tcpRcvQueueBytes  ETV
vector 165  Omrezje.klient2.tcp  "advertised window"  ETV
vector 164  Omrezje.klient2.tcp  "receive window"  ETV
vector 167  Omrezje.klient2.tcp  "sent ack"  ETV
vector 202  Omrezje.klient3.tcp  tcpRcvQueueBytes  ETV
vector 189  Omrezje.klient3.tcp  "advertised window"  ETV
vector 188  Omrezje.klient3.tcp  "receive window"  ETV
vector 191  Omrezje.klient3.tcp  "sent ack"  ETV
vector 226  Omrezje.klient4.tcp  tcpRcvQueueBytes  ETV
vector 213  Omrezje.klient4.tcp  "advertised window"  ETV
vector 212  Omrezje.klient4.tcp  "receive window"  ETV
vector 215  Omrezje.klient4.tcp  "sent ack"  ETV
vector 18  Omrezje.klient1.networkLayer.arp  sentReq:vector  ETV
attr title  "ARP request sent, vector"
vector 20  Omrezje.klient1.networkLayer.arp  initiatedResolution:vector  ETV
attr title  "ARP initiated resolutions, vector"
vector 33  Omrezje.klient2.networkLayer.arp  sentReq:vector  ETV
attr title  "ARP request sent, vector"
vector 35  Omrezje.klient2.networkLayer.arp  initiatedResolution:vector  ETV
attr title  "ARP initiated resolutions, vector"
vector 48  Omrezje.klient3.networkLayer.arp  sentReq:vector  ETV
attr title  "ARP request sent, vector"
vector 50  Omrezje.klient3.networkLayer.arp  initiatedResolution:vector  ETV
attr title  "ARP initiated resolutions, vector"
vector 63  Omrezje.klient4.networkLayer.arp  sentReq:vector  ETV
attr title  "ARP request sent, vector"
vector 65  Omrezje.klient4.networkLayer.arp  initiatedResolution:vector  ETV
attr title  "ARP initiated resolutions, vector"
vector 114  Omrezje.ap.wlan[0].radio  snirVector  ETV
vector 102  Omrezje.klient3.wlan[0].radio  snirVector  ETV
vector 90  Omrezje.klient1.wlan[0].radio  snirVector  ETV
vector 108  Omrezje.klient4.wlan[0].radio  snirVector  ETV
vector 84  Omrezje.streznik.wlan[0].radio  snirVector  ETV
vector 96  Omrezje.klient2.wlan[0].radio  snirVector  ETV
vector 95  Omrezje.klient2.wlan[0].mac  "Mac delay AC0"  ETV
vector 101  Omrezje.klient3.wlan[0].mac  "Mac delay AC0"  ETV
vector 107  Omrezje.klient4.wlan[0].mac  "Mac delay AC0"  ETV
vector 89  Omrezje.klient1.wlan[0].mac  "Mac delay AC0"  ETV
vector 83  Omrezje.streznik.wlan[0].mac  "Mac delay AC0"  ETV
vector 113  Omrezje.ap.wlan[0].mac  "Mac delay AC0"  ETV
vector 120  Omrezje.streznik.tcp  "rcvd seq"  ETV
vector 121  Omrezje.streznik.tcp  "rcvd ack"  ETV
vector 117  Omrezje.streznik.tcp  "advertised window"  ETV
vector 115  Omrezje.streznik.tcp  "send window"  ETV
vector 130  Omrezje.streznik.tcp  tcpRcvQueueBytes  ETV
vector 116  Omrezje.streznik.tcp  "receive window"  ETV
vector 119  Omrezje.streznik.tcp  "sent ack"  ETV
vector 240  Omrezje.streznik.tcp  "rcvd seq"  ETV
vector 241  Omrezje.streznik.tcp  "rcvd ack"  ETV
vector 237  Omrezje.streznik.tcp  "advertised window"  ETV
vector 235  Omrezje.streznik.tcp  "send window"  ETV
vector 250  Omrezje.streznik.tcp  tcpRcvQueueBytes  ETV
vector 236  Omrezje.streznik.tcp  "receive window"  ETV
vector 239  Omrezje.streznik.tcp  "sent ack"  ETV
vector 264  Omrezje.streznik.tcp  "rcvd seq"  ETV
vector 265  Omrezje.streznik.tcp  "rcvd ack"  ETV
vector 261  Omrezje.streznik.tcp  "advertised window"  ETV
vector 259  Omrezje.streznik.tcp  "send window"  ETV
vector 274  Omrezje.streznik.tcp  tcpRcvQueueBytes  ETV
vector 260  Omrezje.streznik.tcp  "receive window"  ETV
vector 263  Omrezje.streznik.tcp  "sent ack"  ETV
vector 288  Omrezje.streznik.tcp  "rcvd seq"  ETV
vector 289  Omrezje.streznik.tcp  "rcvd ack"  ETV
vector 285  Omrezje.streznik.tcp  "advertised window"  ETV
vector 283  Omrezje.streznik.tcp  "send window"  ETV
vector 298  Omrezje.streznik.tcp  tcpRcvQueueBytes  ETV
vector 284  Omrezje.streznik.tcp  "receive window"  ETV
vector 287  Omrezje.streznik.tcp  "sent ack"  ETV
vector 168  Omrezje.klient2.tcp  "rcvd seq"  ETV
vector 169  Omrezje.klient2.tcp  "rcvd ack"  ETV
vector 163  Omrezje.klient2.tcp  "send window"  ETV
vector 29  Omrezje.klient2.tcpApp[0]  sentPk:vector(packetBytes)  ETV
attr interpolationmode  none
attr source  sentPk
attr title  "packets sent, vector(packetBytes)"
vector 166  Omrezje.klient2.tcp  "sent seq"  ETV
vector 170  Omrezje.klient2.tcp  "unacked bytes"  ETV
vector 122  Omrezje.streznik.tcp  "unacked bytes"  ETV
vector 123  Omrezje.streznik.tcp  "rcvd dupAcks"  ETV
vector 57  Omrezje.klient3.wlan[0].radio  lossRate:vector  ETV
attr interpolationmode  backward-sample-hold
attr title  "packet loss rate, vector"
vector 27  Omrezje.klient1.wlan[0].radio  lossRate:vector  ETV
attr interpolationmode  backward-sample-hold
attr title  "packet loss rate, vector"
vector 72  Omrezje.klient4.wlan[0].radio  lossRate:vector  ETV
attr interpolationmode  backward-sample-hold
attr title  "packet loss rate, vector"
vector 216  Omrezje.klient4.tcp  "rcvd seq"  ETV
vector 217  Omrezje.klient4.tcp  "rcvd ack"  ETV
vector 211  Omrezje.klient4.tcp  "send window"  ETV
vector 59  Omrezje.klient4.tcpApp[0]  sentPk:vector(packetBytes)  ETV
attr interpolationmode  none
attr source  sentPk
attr title  "packets sent, vector(packetBytes)"
vector 214  Omrezje.klient4.tcp  "sent seq"  ETV
vector 218  Omrezje.klient4.tcp  "unacked bytes"  ETV
vector 42  Omrezje.klient2.wlan[0].radio  lossRate:vector  ETV
attr interpolationmode  backward-sample-hold
attr title  "packet loss rate, vector"
vector 192  Omrezje.klient3.tcp  "rcvd seq"  ETV
vector 193  Omrezje.klient3.tcp  "rcvd ack"  ETV
vector 187  Omrezje.klient3.tcp  "send window"  ETV
vector 44  Omrezje.klient3.tcpApp[0]  sentPk:vector(packetBytes)  ETV
attr interpolationmode  none
attr source  sentPk
attr title  "packets sent, vector(packetBytes)"
vector 190  Omrezje.klient3.tcp  "sent seq"  ETV
vector 194  Omrezje.klient3.tcp  "unacked bytes"  ETV
vector 144  Omrezje.klient1.tcp  "rcvd seq"  ETV
vector 145  Omrezje.klient1.tcp  "rcvd ack"  ETV
vector 139  Omrezje.klient1.tcp  "send window"  ETV
vector 14  Omrezje.klient1.tcpApp[0]  sentPk:vector(packetBytes)  ETV
attr interpolationmode  none
attr source  sentPk
attr title  "packets sent, vector(packetBytes)"
vector 142  Omrezje.klient1.tcp  "sent seq"  ETV
vector 146  Omrezje.klient1.tcp  "unacked bytes"  ETV
vector 182  Omrezje.klient2.tcp  "measured RTT"  ETV
vector 183  Omrezje.klient2.tcp  "smoothed RTT"  ETV
vector 184  Omrezje.klient2.tcp  RTTVAR  ETV
vector 185  Omrezje.klient2.tcp  RTO  ETV
vector 180  Omrezje.klient2.tcp  cwnd  ETV
vector 171  Omrezje.klient2.tcp  "rcvd dupAcks"  ETV
vector 266  Omrezje.streznik.tcp  "unacked bytes"  ETV
vector 78  Omrezje.ap.wlan[0].radio  lossRate:vector  ETV
attr interpolationmode  backward-sample-hold
attr title  "packet loss rate, vector"
vector 290  Omrezje.streznik.tcp  "unacked bytes"  ETV
vector 291  Omrezje.streznik.tcp  "rcvd dupAcks"  ETV
vector 0  Omrezje.streznik.tcpApp[0]  rcvdPk:vector(packetBytes)  ETV
attr interpolationmode  none
attr source  rcvdPk
attr title  "packets received, vector(packetBytes)"
vector 2  Omrezje.streznik.tcpApp[0]  endToEndDelay:vector  ETV
attr interpolationmode  none
attr source  messageAge(rcvdPk)
attr title  "end-to-end delay, vector"
attr unit  s
vector 1  Omrezje.streznik.tcpApp[0]  sentPk:vector(packetBytes)  ETV
attr interpolationmode  none
attr source  sentPk
attr title  "packets sent, vector(packetBytes)"
vector 118  Omrezje.streznik.tcp  "sent seq"  ETV
vector 12  Omrezje.streznik.wlan[0].radio  lossRate:vector  ETV
attr interpolationmode  backward-sample-hold
attr title  "packet loss rate, vector"
vector 242  Omrezje.streznik.tcp  "unacked bytes"  ETV
vector 252  Omrezje.streznik.tcp  cwnd  ETV
vector 243  Omrezje.streznik.tcp  "rcvd dupAcks"  ETV
vector 267  Omrezje.streznik.tcp  "rcvd dupAcks"  ETV
vector 158  Omrezje.klient1.tcp  "measured RTT"  ETV
vector 159  Omrezje.klient1.tcp  "smoothed RTT"  ETV
vector 160  Omrezje.klient1.tcp  RTTVAR  ETV
vector 161  Omrezje.klient1.tcp  RTO  ETV
vector 156  Omrezje.klient1.tcp  cwnd  ETV
vector 147  Omrezje.klient1.tcp  "rcvd dupAcks"  ETV
vector 230  Omrezje.klient4.tcp  "measured RTT"  ETV
vector 231  Omrezje.klient4.tcp  "smoothed RTT"  ETV
vector 232  Omrezje.klient4.tcp  RTTVAR  ETV
vector 233  Omrezje.klient4.tcp  RTO  ETV
vector 228  Omrezje.klient4.tcp  cwnd  ETV
vector 219  Omrezje.klient4.tcp  "rcvd dupAcks"  ETV
vector 206  Omrezje.klient3.tcp  "measured RTT"  ETV
vector 207  Omrezje.klient3.tcp  "smoothed RTT"  ETV
vector 208  Omrezje.klient3.tcp  RTTVAR  ETV
vector 209  Omrezje.klient3.tcp  RTO  ETV
vector 204  Omrezje.klient3.tcp  cwnd  ETV
vector 195  Omrezje.klient3.tcp  "rcvd dupAcks"  ETV
vector 100  Omrezje.klient3.wlan[0].mac  "throughput AC0"  ETV
vector 99  Omrezje.klient3.wlan[0].mac  "jitter AC0"  ETV
vector 94  Omrezje.klient2.wlan[0].mac  "throughput AC0"  ETV
vector 93  Omrezje.klient2.wlan[0].mac  "jitter AC0"  ETV
vector 106  Omrezje.klient4.wlan[0].mac  "throughput AC0"  ETV
vector 105  Omrezje.klient4.wlan[0].mac  "jitter AC0"  ETV
vector 88  Omrezje.klient1.wlan[0].mac  "throughput AC0"  ETV
vector 87  Omrezje.klient1.wlan[0].mac  "jitter AC0"  ETV
vector 112  Omrezje.ap.wlan[0].mac  "throughput AC0"  ETV
vector 111  Omrezje.ap.wlan[0].mac  "jitter AC0"  ETV
vector 82  Omrezje.streznik.wlan[0].mac  "throughput AC0"  ETV
vector 81  Omrezje.streznik.wlan[0].mac  "jitter AC0"  ETV
vector 286  Omrezje.streznik.tcp  "sent seq"  ETV
vector 134  Omrezje.streznik.tcp  "measured RTT"  ETV
vector 135  Omrezje.streznik.tcp  "smoothed RTT"  ETV
vector 136  Omrezje.streznik.tcp  RTTVAR  ETV
vector 137  Omrezje.streznik.tcp  RTO  ETV
vector 132  Omrezje.streznik.tcp  cwnd  ETV
vector 238  Omrezje.streznik.tcp  "sent seq"  ETV
vector 262  Omrezje.streznik.tcp  "sent seq"  ETV
vector 58  Omrezje.klient4.tcpApp[0]  rcvdPk:vector(packetBytes)  ETV
attr interpolationmode  none
attr source  rcvdPk
attr title  "packets received, vector(packetBytes)"
vector 60  Omrezje.klient4.tcpApp[0]  endToEndDelay:vector  ETV
attr interpolationmode  none
attr source  messageAge(rcvdPk)
attr title  "end-to-end delay, vector"
attr unit  s
vector 254  Omrezje.streznik.tcp  "measured RTT"  ETV
vector 255  Omrezje.streznik.tcp  "smoothed RTT"  ETV
vector 256  Omrezje.streznik.tcp  RTTVAR  ETV
vector 257  Omrezje.streznik.tcp  RTO  ETV
vector 28  Omrezje.klient2.tcpApp[0]  rcvdPk:vector(packetBytes)  ETV
attr interpolationmode  none
attr source  rcvdPk
attr title  "packets received, vector(packetBytes)"
vector 30  Omrezje.klient2.tcpApp[0]  endToEndDelay:vector  ETV
attr interpolationmode  none
attr source  messageAge(rcvdPk)
attr title  "end-to-end delay, vector"
attr unit  s
vector 278  Omrezje.streznik.tcp  "measured RTT"  ETV
vector 279  Omrezje.streznik.tcp  "smoothed RTT"  ETV
vector 280  Omrezje.streznik.tcp  RTTVAR  ETV
vector 281  Omrezje.streznik.tcp  RTO  ETV
vector 276  Omrezje.streznik.tcp  cwnd  ETV
vector 62  Omrezje.klient4.tcpApp[0]  trajanjeZahtevka:vector  ETV
attr interpolationmode  none
attr title  "trajanje zahtevka, vector"
attr unit  s
vector 32  Omrezje.klient2.tcpApp[0]  trajanjeZahtevka:vector  ETV
attr interpolationmode  none
attr title  "trajanje zahtevka, vector"
attr unit  s
vector 43  Omrezje.klient3.tcpApp[0]  rcvdPk:vector(packetBytes)  ETV
attr interpolationmode  none
attr source  rcvdPk
attr title  "packets received, vector(packetBytes)"
vector 45  Omrezje.klient3.tcpApp[0]  endToEndDelay:vector  ETV
attr interpolationmode  none
attr source  messageAge(rcvdPk)
attr title  "end-to-end delay, vector"
attr unit  s
vector 47  Omrezje.klient3.tcpApp[0]  trajanjeZahtevka:vector  ETV
attr interpolationmode  none
attr title  "trajanje zahtevka, vector"
attr unit  s
276	18153 144 5800 8100 0.171838432957 0.252760933121 5 1072 3216 10720 25856640
278	18297 116 5800 7778 0.171838432957 0.24689928882 3 0.029258404778 0.054966124127 0.13002697999 0.0059751935770919
279	18413 116 5800 7778 0.171838432957 0.24689928882 3 0.006870765515 0.013927373531 0.032535365257 0.0003789416313623
280	18529 116 5800 7778 0.171838432957 0.24689928882 3 0.514150136529 0.663120765516 1.762368032568 1.0464181646976
281	18645 116 5800 7778 0.171838432957 0.24689928882 3 2.070527919647 2.659353827579 7.082007495529 16.891744182127
259	18761 199 1177 8100 0.02094760944 0.252760933121 7 7504 7504 52528 394170112
260	18960 258 1177 7827 0.02094760944 0.247751172649 9 7504 7504 67536 506790144
261	19218 286 1177 7827 0.02094760944 0.247751172649 10 7505 8281 81013 657249653
262	19504 115 3999 7048 0.11687230883 0.217640884042 4 5237 6845 24164 147411204
263	19619 247 1177 7827 0.02094760944 0.247751172649 9 1 777 5972 4506708
264	19866 269 1177 8100 0.02094760944 0.252760933121 10 0 777 5196 3902980
265	20135 282 1177 8100 0.02094760944 0.252760933121 10 0 7321 56599 363025383
266	20417 268 2410 8100 0.0550225704 0.252760933121 10 0 1072 3631 2971523
267	20685 206 3117 8100 0.087412129286 0.252760933121 8 0 0 0 0
274	20891 282 1177 7827 0.02094760944 0.247751172649 11 0 0 0 0
vector 346  Omrezje.klient4.tcp  tcpRcvQueueBytes  ETV
vector 333  Omrezje.klient4.tcp  "advertised window"  ETV
vector 332  Omrezje.klient4.tcp  "receive window"  ETV
vector 335  Omrezje.klient4.tcp  "sent ack"  ETV
vector 312  Omrezje.streznik.tcp  "rcvd seq"  ETV
vector 313  Omrezje.streznik.tcp  "rcvd ack"  ETV
vector 309  Omrezje.streznik.tcp  "advertised window"  ETV
vector 307  Omrezje.streznik.tcp  "send window"  ETV
vector 322  Omrezje.streznik.tcp  tcpRcvQueueBytes  ETV
vector 308  Omrezje.streznik.tcp  "receive window"  ETV
vector 311  Omrezje.streznik.tcp  "sent ack"  ETV
vector 336  Omrezje.klient4.tcp  "rcvd seq"  ETV
vector 337  Omrezje.klient4.tcp  "rcvd ack"  ETV
vector 331  Omrezje.klient4.tcp  "send window"  ETV
vector 334  Omrezje.klient4.tcp  "sent seq"  ETV
vector 338  Omrezje.klient4.tcp  "unacked bytes"  ETV
vector 314  Omrezje.streznik.tcp  "unacked bytes"  ETV
vector 394  Omrezje.klient2.tcp  tcpRcvQueueBytes  ETV
vector 381  Omrezje.klient2.tcp  "advertised window"  ETV
vector 380  Omrezje.klient2.tcp  "receive window"  ETV
vector 383  Omrezje.klient2.tcp  "sent ack"  ETV
vector 315  Omrezje.streznik.tcp  "rcvd dupAcks"  ETV
vector 350  Omrezje.klient4.tcp  "measured RTT"  ETV
vector 351  Omrezje.klient4.tcp  "smoothed RTT"  ETV
vector 352  Omrezje.klient4.tcp  RTTVAR  ETV
vector 353  Omrezje.klient4.tcp  RTO  ETV
vector 348  Omrezje.klient4.tcp  cwnd  ETV
vector 339  Omrezje.klient4.tcp  "rcvd dupAcks"  ETV
vector 310  Omrezje.streznik.tcp  "sent seq"  ETV
vector 418  Omrezje.klient3.tcp  tcpRcvQueueBytes  ETV
vector 405  Omrezje.klient3.tcp  "advertised window"  ETV
vector 404  Omrezje.klient3.tcp  "receive window"  ETV
vector 407  Omrezje.klient3.tcp  "sent ack"  ETV
vector 326  Omrezje.streznik.tcp  "measured RTT"  ETV
vector 327  Omrezje.streznik.tcp  "smoothed RTT"  ETV
vector 328  Omrezje.streznik.tcp  RTTVAR  ETV
vector 329  Omrezje.streznik.tcp  RTO  ETV
vector 324  Omrezje.streznik.tcp  cwnd  ETV
vector 360  Omrezje.streznik.tcp  "rcvd seq"  ETV
vector 361  Omrezje.streznik.tcp  "rcvd ack"  ETV
vector 357  Omrezje.streznik.tcp  "advertised window"  ETV
vector 355  Omrezje.streznik.tcp  "send window"  ETV
vector 370  Omrezje.streznik.tcp  tcpRcvQueueBytes  ETV
vector 356  Omrezje.streznik.tcp  "receive window"  ETV
vector 359  Omrezje.streznik.tcp  "sent ack"  ETV
vector 408  Omrezje.klient3.tcp  "rcvd seq"  ETV
vector 409  Omrezje.klient3.tcp  "rcvd ack"  ETV
vector 403  Omrezje.klient3.tcp  "send window"  ETV
vector 406  Omrezje.klient3.tcp  "sent seq"  ETV
vector 410  Omrezje.klient3.tcp  "unacked bytes"  ETV
vector 362  Omrezje.streznik.tcp  "unacked bytes"  ETV
vector 363  Omrezje.streznik.tcp  "rcvd dupAcks"  ETV
324	23876 89 9274 10567 0.291998241582 0.323689894836 3 1072 2144 4824 8331584
326	23965 79 9274 10118 0.291998241582 0.315076308394 2 0.013165033404 0.023078066812 0.036243100216 0.00070591527230757
327	24044 79 9274 10118 0.291998241582 0.315076308394 2 0.001645629175 0.004324683879 0.005970313054 2.1410986034894e-05
328	24123 79 9274 10118 0.291998241582 0.315076308394 2 0.578337730234 0.657895629176 1.23623335941 0.7673011891011
329	24202 79 9274 10118 0.291998241582 0.315076308394 2 2.317675604815 2.633228145879 4.950903750694 12.305510677404
307	24281 146 8200 10567 0.259356621732 0.323689894836 5 7504 7504 37520 281550080
308	24427 204 8200 10291 0.259356621732 0.318624581322 7 7504 7504 52528 394170112
309	24631 241 8200 10291 0.259356621732 0.318624581322 8 71983 72719 580077 42061938433
310	24872 60 8880 9274 0.278833208178 0.291998241582 2 64840 65376 130216 8478246976
311	24932 211 8200 10291 0.259356621732 0.318624581322 7 64479 65215 455566 29649081504
312	25143 241 8200 10567 0.259356621732 0.323689894836 8 64478 65215 519308 33711039204
313	25384 237 8200 10567 0.259356621732 0.323689894836 8 0 65441 456217 29734009857
314	25621 187 8391 10567 0.26282177849 0.323689894836 7 0 536 601 291393
315	25808 158 8489 10567 0.26880405142 0.323689894836 6 0 0 0 0
322	25966 234 8200 10291 0.259356621732 0.318624581322 9 0 0 0 0
vector 466  Omrezje.klient4.tcp  tcpRcvQueueBytes  ETV
vector 453  Omrezje.klient4.tcp  "advertised window"  ETV
vector 452  Omrezje.klient4.tcp  "receive window"  ETV
vector 455  Omrezje.klient4.tcp  "sent ack"  ETV
vector 432  Omrezje.streznik.tcp  "rcvd seq"  ETV
vector 433  Omrezje.streznik.tcp  "rcvd ack"  ETV
vector 429  Omrezje.streznik.tcp  "advertised window"  ETV
vector 427  Omrezje.streznik.tcp  "send window"  ETV
vector 442  Omrezje.streznik.tcp  tcpRcvQueueBytes  ETV
vector 428  Omrezje.streznik.tcp  "receive window"  ETV
vector 431  Omrezje.streznik.tcp  "sent ack"  ETV
vector 456  Omrezje.klient4.tcp  "rcvd seq"  ETV
vector 457  Omrezje.klient4.tcp  "rcvd ack"  ETV
vector 451  Omrezje.klient4.tcp  "send window"  ETV
vector 454  Omrezje.klient4.tcp  "sent seq"  ETV
vector 458  Omrezje.klient4.tcp  "unacked bytes"  ETV
vector 434  Omrezje.streznik.tcp  "unacked bytes"  ETV
vector 435  Omrezje.streznik.tcp  "rcvd dupAcks"  ETV
vector 470  Omrezje.klient4.tcp  "measured RTT"  ETV
vector 471  Omrezje.klient4.tcp  "smoothed RTT"  ETV
vector 472  Omrezje.klient4.tcp  RTTVAR  ETV
vector 473  Omrezje.klient4.tcp  RTO  ETV
vector 468  Omrezje.klient4.tcp  cwnd  ETV
vector 459  Omrezje.klient4.tcp  "rcvd dupAcks"  ETV
vector 430  Omrezje.streznik.tcp  "sent seq"  ETV
vector 446  Omrezje.streznik.tcp  "measured RTT"  ETV
vector 447  Omrezje.streznik.tcp  "smoothed RTT"  ETV
vector 448  Omrezje.streznik.tcp  RTTVAR  ETV
vector 449  Omrezje.streznik.tcp  RTO  ETV
vector 444  Omrezje.streznik.tcp  cwnd  ETV
444	27733 90 11406 11966 0.395867939994 0.406139410264 3 1072 2144 4824 8331584
446	27823 80 11406 11598 0.395867939994 0.399417096752 2 0.003549156758 0.009271040586 0.012820197344 9.8548707240116e-05
447	27903 80 11406 11598 0.395867939994 0.399417096752 2 0.001158880073 0.001457664658 0.002616544731 3.4677892787787e-06
448	27983 80 11406 11598 0.395867939994 0.399417096752 2 0.575531554651 0.657408880074 1.232940434725 0.76342300599915
449	28063 80 11406 11598 0.395867939994 0.399417096752 2 2.303583883262 2.630794400369 4.934378283631 12.227577884237
427	28143 149 10667 11966 0.372404429132 0.406139410264 5 7504 7504 37520 281550080
428	28292 207 10667 11693 0.372404429132 0.40113836968 7 7504 7504 52528 394170112
429	28499 253 10667 11693 0.372404429132 0.40113836968 8 100254 100983 806210 81247578682
430	28752 62 11134 11406 0.386596899408 0.395867939994 2 93102 93638 186740 17436057448
431	28814 214 10667 11693 0.372404429132 0.40113836968 7 92750 93479 653428 60995896630
432	29028 245 10667 11966 0.372404429132 0.406139410264 8 92749 93479 745448 69462512690
433	29273 241 10667 11966 0.372404429132 0.406139410264 8 0 93667 653943 61092168257
434	29514 190 10902 11966 0.37878485882 0.406139410264 7 0 536 565 288081
435	29704 160 10947 11966 0.38175374265 0.406139410264 6 0 0 0 0
442	29864 239 10667 11693 0.372404429132 0.40113836968 9 0 0 0 0
vector 514  Omrezje.klient4.tcp  tcpRcvQueueBytes  ETV
vector 501  Omrezje.klient4.tcp  "advertised window"  ETV
vector 500  Omrezje.klient4.tcp  "receive window"  ETV
vector 503  Omrezje.klient4.tcp  "sent ack"  ETV
vector 480  Omrezje.streznik.tcp  "rcvd seq"  ETV
vector 481  Omrezje.streznik.tcp  "rcvd ack"  ETV
vector 477  Omrezje.streznik.tcp  "advertised window"  ETV
vector 475  Omrezje.streznik.tcp  "send window"  ETV
vector 490  Omrezje.streznik.tcp  tcpRcvQueueBytes  ETV
vector 476  Omrezje.streznik.tcp  "receive window"  ETV
vector 479  Omrezje.streznik.tcp  "sent ack"  ETV
vector 504  Omrezje.klient4.tcp  "rcvd seq"  ETV
vector 505  Omrezje.klient4.tcp  "rcvd ack"  ETV
vector 499  Omrezje.klient4.tcp  "send window"  ETV
vector 502  Omrezje.klient4.tcp  "sent seq"  ETV
vector 506  Omrezje.klient4.tcp  "unacked bytes"  ETV
vector 482  Omrezje.streznik.tcp  "unacked bytes"  ETV
vector 483  Omrezje.streznik.tcp  "rcvd dupAcks"  ETV
vector 518  Omrezje.klient4.tcp  "measured RTT"  ETV
vector 519  Omrezje.klient4.tcp  "smoothed RTT"  ETV
vector 520  Omrezje.klient4.tcp  RTTVAR  ETV
vector 521  Omrezje.klient4.tcp  RTO  ETV
vector 516  Omrezje.klient4.tcp  cwnd  ETV
vector 507  Omrezje.klient4.tcp  "rcvd dupAcks"  ETV
vector 478  Omrezje.streznik.tcp  "sent seq"  ETV
vector 494  Omrezje.streznik.tcp  "measured RTT"  ETV
vector 495  Omrezje.streznik.tcp  "smoothed RTT"  ETV
vector 496  Omrezje.streznik.tcp  RTTVAR  ETV
vector 497  Omrezje.streznik.tcp  RTO  ETV
vector 492  Omrezje.streznik.tcp  cwnd  ETV
492	31636 90 12808 13368 0.518559305548 0.531733775818 3 1072 2144 4824 8331584
494	31726 80 12808 12998 0.518559305548 0.525092462306 2 0.006533156758 0.009271040586 0.015804197344 0.00012863433077186
495	31806 80 12808 12998 0.518559305548 0.525092462306 2 0.001158880073 0.001830664658 0.002989544731 4.6943361136467e-06
496	31886 80 12808 12998 0.518559305548 0.525092462306 2 0.575904554651 0.657408880074 1.233313434725 0.76385249166792
497	31966 80 12808 12998 0.518559305548 0.525092462306 2 2.305448883262 2.630794400369 4.936243283631 12.236173730347
475	32046 150 12063 13368 0.494993678516 0.531733775818 5 7504 7504 37520 281550080
476	32196 210 12063 13093 0.494993678516 0.526759735234 7 7504 7504 52528 394170112
477	32406 256 12063 13093 0.494993678516 0.526759735234 8 130902 131645 1051464 138197855310
478	32662 64 12535 12808 0.509288264962 0.518559305548 2 123749 124285 248034 30760576226
479	32726 224 12063 13093 0.494993678516 0.526759735234 7 123398 124141 868034 107640897322
480	32950 256 12063 13368 0.494993678516 0.531733775818 8 123397 124141 990688 122683795454
481	33206 251 12063 13368 0.494993678516 0.531733775818 8 0 124687 869591 108028251389
482	33457 193 12256 13368 0.498332835274 0.531733775818 7 0 536 938 448098
483	33650 162 12347 13368 0.504279108204 0.531733775818 6 0 0 0 0
490	33812 243 12063 13093 0.494993678516 0.526759735234 9 0 0 0 0
vector 562  Omrezje.klient4.tcp  tcpRcvQueueBytes  ETV
vector 549  Omrezje.klient4.tcp  "advertised window"  ETV
vector 548  Omrezje.klient4.tcp  "receive window"  ETV
vector 551  Omrezje.klient4.tcp  "sent ack"  ETV
vector 528  Omrezje.streznik.tcp  "rcvd seq"  ETV
vector 529  Omrezje.streznik.tcp  "rcvd ack"  ETV
vector 525  Omrezje.streznik.tcp  "advertised window"  ETV
vector 523  Omrezje.streznik.tcp  "send window"  ETV
vector 538  Omrezje.streznik.tcp  tcpRcvQueueBytes  ETV
vector 524  Omrezje.streznik.tcp  "receive window"  ETV